# vtk DataFile Version 3.0
#This file was generated by the deal.II library on 2019/9/15 at 20:47:07
ASCII
DATASET UNSTRUCTURED_GRID

POINTS 6400 double
10 0 10
10 0 9
9.01 0 10
9.01 0 9
9.84355 1.76195 10
9.84355 1.76195 9
8.86798 1.59052 10
8.86799 1.59052 9
9.01 0 10
9.01 0 9
8.02 0 10
8.02 0 9
8.86798 1.59052 10
8.86799 1.59052 9
7.89242 1.4191 10
7.89242 1.4191 9
9.25723 3.78197 10
9.25725 3.78198 9
9.84355 1.76195 10
9.84355 1.76195 9
8.34009 3.40892 10
8.34009 3.40892 9
8.86798 1.59052 10
8.86799 1.59052 9
10 0 8
10 0 9
9.84355 1.76195 8
9.84355 1.76195 9
9.01 0 8
9.01 0 9
8.86799 1.59052 8
8.86799 1.59052 9
8.02 0 10
8.02 0 9
7.03 0 10
7.03 0 9
7.89242 1.4191 10
7.89242 1.4191 9
6.91685 1.24767 10
6.91685 1.24767 9
8.34009 3.40892 10
8.34009 3.40892 9
8.86798 1.59052 10
8.86799 1.59052 9
7.42294 3.03586 10
7.42295 3.03586 9
7.89242 1.4191 10
7.89242 1.4191 9
9.01 0 8
9.01 0 9
8.86799 1.59052 8
8.86799 1.59052 9
8.02 0 8
8.02 0 9
7.89242 1.4191 8
7.89242 1.4191 9
8.32815 5.5355 10
8.32815 5.53551 9
9.25723 3.78197 10
9.25725 3.78198 9
7.50306 4.9883 10
7.50307 4.9883 9
8.34009 3.40892 10
8.34009 3.40892 9
9.25725 3.78198 8
8.3401 3.40892 8
9.84355 1.76195 8
8.86799 1.59052 8
9.25725 3.78198 9
8.34009 3.40892 9
9.84355 1.76195 9
8.86799 1.59052 9
10 0 7
10 0 8
9.84355 1.76195 7
9.84355 1.76195 8
9.01 0 7
9.01 0 8
8.86799 1.59052 7
8.86799 1.59052 8
7.03 0 10
7.03 0 9
6.04 0 10
6.04 0 9
6.91685 1.24767 10
6.91685 1.24767 9
5.94129 1.07624 10
5.94129 1.07624 9
7.42294 3.03586 10
7.42295 3.03586 9
7.89242 1.4191 10
7.89242 1.4191 9
6.5058 2.6628 10
6.5058 2.6628 9
6.91685 1.24767 10
6.91685 1.24767 9
8.02 0 8
8.02 0 9
7.89242 1.4191 8
7.89242 1.4191 9
7.03 0 8
7.03 0 9
6.91686 1.24767 8
6.91685 1.24767 9
7.50306 4.9883 10
7.50307 4.9883 9
8.34009 3.40892 10
8.34009 3.40892 9
6.67798 4.44109 10
6.67798 4.44109 9
7.42294 3.03586 10
7.42295 3.03586 9
8.3401 3.40892 8
7.42295 3.03586 8
8.86799 1.59052 8
7.89242 1.4191 8
8.34009 3.40892 9
7.42295 3.03586 9
8.86799 1.59052 9
7.89242 1.4191 9
9.01 0 7
9.01 0 8
8.86799 1.59052 7
8.86799 1.59052 8
8.02 0 7
8.02 0 8
7.89242 1.4191 7
7.89242 1.4191 8
7.07098 7.07115 10
7.07098 7.07115 9
8.32815 5.5355 10
8.32815 5.53551 9
6.37096 6.37111 10
6.37096 6.37111 9
7.50306 4.9883 10
7.50307 4.9883 9
8.32815 5.53551 8
7.50307 4.9883 8
9.25725 3.78198 8
8.3401 3.40892 8
8.32815 5.53551 9
7.50307 4.9883 9
9.25725 3.78198 9
8.34009 3.40892 9
9.25725 3.78198 7
8.3401 3.40892 7
9.84355 1.76195 7
8.86799 1.59052 7
9.25725 3.78198 8
8.3401 3.40892 8
9.84355 1.76195 8
8.86799 1.59052 8
10 0 6
10 0 7
9.84355 1.76195 6
9.84355 1.76195 7
9.01 0 6
9.01 0 7
8.86799 1.59052 6
8.86799 1.59052 7
5.05 0 10
5.05 0 9
4.96572 0.904815 10
4.96572 0.904815 9
6.04 0 10
6.04 0 9
5.94129 1.07624 10
5.94129 1.07624 9
7.03 0 8
7.03 0 9
6.91686 1.24767 8
6.91685 1.24767 9
6.04 0 8
6.04 0 9
5.94129 1.07624 8
5.94129 1.07624 9
6.5058 2.6628 10
6.5058 2.6628 9
6.91685 1.24767 10
6.91685 1.24767 9
5.58865 2.28975 10
5.58865 2.28975 9
5.94129 1.07624 10
5.94129 1.07624 9
6.67798 4.44109 10
6.67798 4.44109 9
7.42294 3.03586 10
7.42295 3.03586 9
5.85289 3.89388 10
5.85289 3.89389 9
6.5058 2.6628 10
6.5058 2.6628 9
7.42295 3.03586 8
6.5058 2.66281 8
7.89242 1.4191 8
6.91686 1.24767 8
7.42295 3.03586 9
6.5058 2.6628 9
7.89242 1.4191 9
6.91685 1.24767 9
8.02 0 7
8.02 0 8
7.89242 1.4191 7
7.89242 1.4191 8
7.03 0 7
7.03 0 8
6.91686 1.24767 7
6.91686 1.24767 8
6.37096 6.37111 10
6.37096 6.37111 9
7.50306 4.9883 10
7.50307 4.9883 9
5.67093 5.67106 10
5.67093 5.67106 9
6.67798 4.44109 10
6.67798 4.44109 9
7.50307 4.9883 8
6.67798 4.44109 8
8.3401 3.40892 8
7.42295 3.03586 8
7.50307 4.9883 9
6.67798 4.44109 9
8.34009 3.40892 9
7.42295 3.03586 9
8.3401 3.40892 7
7.42295 3.03586 7
8.86799 1.59052 7
7.89242 1.4191 7
8.3401 3.40892 8
7.42295 3.03586 8
8.86799 1.59052 8
7.89242 1.4191 8
9.01 0 6
9.01 0 7
8.86799 1.59052 6
8.86799 1.59052 7
8.02 0 6
8.02 0 7
7.89242 1.4191 6
7.89242 1.4191 7
5.53545 8.32819 10
7.07098 7.07115 10
4.98824 7.5031 10
6.37096 6.37111 10
5.53545 8.32819 9
7.07098 7.07115 9
4.98825 7.5031 9
6.37096 6.37111 9
7.07098 7.07115 8
6.37096 6.37111 8
8.32815 5.53551 8
7.50307 4.9883 8
7.07098 7.07115 9
6.37096 6.37111 9
8.32815 5.53551 9
7.50307 4.9883 9
8.32815 5.53551 7
7.50307 4.9883 7
9.25725 3.78198 7
8.3401 3.40892 7
8.32815 5.53551 8
7.50307 4.9883 8
9.25725 3.78198 8
8.3401 3.40892 8
9.25725 3.78198 6
8.3401 3.40892 6
9.84355 1.76195 6
8.86799 1.59052 6
9.25725 3.78198 7
8.3401 3.40892 7
9.84355 1.76195 7
8.86799 1.59052 7
10 0 5
10 0 6
9.84355 1.76195 5
9.84355 1.76195 6
9.01 0 5
9.01 0 6
8.86799 1.59052 5
8.86799 1.59052 6
4.06 0 10
4.06 0 9
3.99016 0.733388 10
3.99016 0.733388 9
5.05 0 10
5.05 0 9
4.96572 0.904815 10
4.96572 0.904815 9
5.05 0 8
6.04 0 8
4.96573 0.904815 8
5.94129 1.07624 8
5.05 0 9
6.04 0 9
4.96572 0.904815 9
5.94129 1.07624 9
4.6715 1.91669 10
5.58865 2.28975 10
4.96572 0.904815 10
5.94129 1.07624 10
4.6715 1.91669 9
5.58865 2.28975 9
4.96572 0.904815 9
5.94129 1.07624 9
7.03 0 7
7.03 0 8
6.91686 1.24767 7
6.91686 1.24767 8
6.04 0 7
6.04 0 8
5.94129 1.07624 7
5.94129 1.07624 8
6.5058 2.66281 8
5.58865 2.28975 8
6.91686 1.24767 8
5.94129 1.07624 8
6.5058 2.6628 9
5.58865 2.28975 9
6.91685 1.24767 9
5.94129 1.07624 9
5.85289 3.89388 10
5.85289 3.89389 9
6.5058 2.6628 10
6.5058 2.6628 9
5.02781 3.34668 10
5.02781 3.34668 9
5.58865 2.28975 10
5.58865 2.28975 9
5.67093 5.67106 10
5.67093 5.67106 9
6.67798 4.44109 10
6.67798 4.44109 9
4.9709 4.97102 10
4.9709 4.97102 9
5.85289 3.89388 10
5.85289 3.89389 9
6.67798 4.44109 8
5.8529 3.89389 8
7.42295 3.03586 8
6.5058 2.66281 8
6.67798 4.44109 9
5.85289 3.89389 9
7.42295 3.03586 9
6.5058 2.6628 9
7.42295 3.03586 7
6.5058 2.66281 7
7.89242 1.4191 7
6.91686 1.24767 7
7.42295 3.03586 8
6.5058 2.66281 8
7.89242 1.4191 8
6.91686 1.24767 8
8.02 0 6
8.02 0 7
7.89242 1.4191 6
7.89242 1.4191 7
7.03 0 6
7.03 0 7
6.91686 1.24767 6
6.91686 1.24767 7
4.98824 7.5031 10
6.37096 6.37111 10
4.44104 6.67801 10
5.67093 5.67106 10
4.98825 7.5031 9
6.37096 6.37111 9
4.44105 6.67801 9
5.67093 5.67106 9
6.37096 6.37111 8
5.67093 5.67106 8
7.50307 4.9883 8
6.67798 4.44109 8
6.37096 6.37111 9
5.67093 5.67106 9
7.50307 4.9883 9
6.67798 4.44109 9
7.50307 4.9883 7
6.67798 4.44109 7
8.3401 3.40892 7
7.42295 3.03586 7
7.50307 4.9883 8
6.67798 4.44109 8
8.3401 3.40892 8
7.42295 3.03586 8
8.3401 3.40892 6
7.42295 3.03586 6
8.86799 1.59052 6
7.89242 1.4191 6
8.3401 3.40892 7
7.42295 3.03586 7
8.86799 1.59052 7
7.89242 1.4191 7
9.01 0 5
9.01 0 6
8.86799 1.59052 5
8.86799 1.59052 6
8.02 0 5
8.02 0 6
7.89242 1.4191 5
7.89242 1.4191 6
3.78187 9.25727 10
5.53545 8.32819 10
3.40882 8.34012 10
4.98824 7.5031 10
3.78188 9.25729 9
5.53545 8.32819 9
3.40883 8.34013 9
4.98825 7.5031 9
5.53545 8.32819 8
5.53545 8.32819 9
4.98825 7.5031 8
4.98825 7.5031 9
7.07098 7.07115 8
7.07098 7.07115 9
6.37096 6.37111 8
6.37096 6.37111 9
7.07098 7.07115 7
6.37096 6.37111 7
8.32815 5.53551 7
7.50307 4.9883 7
7.07098 7.07115 8
6.37096 6.37111 8
8.32815 5.53551 8
7.50307 4.9883 8
8.32815 5.53551 6
7.50307 4.9883 6
9.25725 3.78198 6
8.3401 3.40892 6
8.32815 5.53551 7
7.50307 4.9883 7
9.25725 3.78198 7
8.3401 3.40892 7
9.25725 3.78198 5
8.3401 3.40892 5
9.84355 1.76195 5
8.86799 1.59052 5
9.25725 3.78198 6
8.3401 3.40892 6
9.84355 1.76195 6
8.86799 1.59052 6
10 0 4
10 0 5
9.84355 1.76195 4
9.84355 1.76195 5
9.01 0 4
9.01 0 5
8.86799 1.59052 4
8.86799 1.59052 5
3.07 0 10
3.07 0 9
3.01459 0.561961 10
3.01459 0.561961 9
4.06 0 10
4.06 0 9
3.99016 0.733388 10
3.99016 0.733388 9
3.75436 1.54363 10
4.6715 1.91669 10
3.99016 0.733388 10
4.96572 0.904815 10
3.75436 1.54363 9
4.6715 1.91669 9
3.99016 0.733388 9
4.96572 0.904815 9
4.06 0 8
5.05 0 8
3.99016 0.733388 8
4.96573 0.904815 8
4.06 0 9
5.05 0 9
3.99016 0.733388 9
4.96572 0.904815 9
5.05 0 7
6.04 0 7
4.96573 0.904815 7
5.94129 1.07624 7
5.05 0 8
6.04 0 8
4.96573 0.904815 8
5.94129 1.07624 8
4.67151 1.91669 8
4.6715 1.91669 9
4.96573 0.904815 8
4.96572 0.904815 9
5.58865 2.28975 8
5.58865 2.28975 9
5.94129 1.07624 8
5.94129 1.07624 9
4.20272 2.79947 10
5.02781 3.34668 10
4.6715 1.91669 10
5.58865 2.28975 10
4.20272 2.79947 9
5.02781 3.34668 9
4.6715 1.91669 9
5.58865 2.28975 9
7.03 0 6
7.03 0 7
6.91686 1.24767 6
6.91686 1.24767 7
6.04 0 6
6.04 0 7
5.94129 1.07624 6
5.94129 1.07624 7
6.5058 2.66281 7
5.58866 2.28975 7
6.91686 1.24767 7
5.94129 1.07624 7
6.5058 2.66281 8
5.58865 2.28975 8
6.91686 1.24767 8
5.94129 1.07624 8
5.8529 3.89389 8
5.02781 3.34668 8
6.5058 2.66281 8
5.58865 2.28975 8
5.85289 3.89389 9
5.02781 3.34668 9
6.5058 2.6628 9
5.58865 2.28975 9
4.9709 4.97102 10
4.9709 4.97102 9
5.85289 3.89388 10
5.85289 3.89389 9
4.27087 4.27098 10
4.27087 4.27098 9
5.02781 3.34668 10
5.02781 3.34668 9
4.44104 6.67801 10
5.67093 5.67106 10
3.89384 5.85292 10
4.9709 4.97102 10
4.44105 6.67801 9
5.67093 5.67106 9
3.89384 5.85292 9
4.9709 4.97102 9
5.67093 5.67106 8
4.9709 4.97102 8
6.67798 4.44109 8
5.8529 3.89389 8
5.67093 5.67106 9
4.9709 4.97102 9
6.67798 4.44109 9
5.85289 3.89389 9
6.67798 4.44109 7
5.8529 3.89389 7
7.42295 3.03586 7
6.5058 2.66281 7
6.67798 4.44109 8
5.8529 3.89389 8
7.42295 3.03586 8
6.5058 2.66281 8
7.42295 3.03586 6
6.5058 2.66281 6
7.89242 1.4191 6
6.91686 1.24767 6
7.42295 3.03586 7
6.5058 2.66281 7
7.89242 1.4191 7
6.91686 1.24767 7
8.02 0 5
8.02 0 6
7.89242 1.4191 5
7.89242 1.4191 6
7.03 0 5
7.03 0 6
6.91686 1.24767 5
6.91686 1.24767 6
3.40882 8.34012 10
4.98824 7.5031 10
3.03578 7.42297 10
4.44104 6.67801 10
3.40883 8.34013 9
4.98825 7.5031 9
3.03578 7.42298 9
4.44105 6.67801 9
4.98825 7.5031 8
4.98825 7.5031 9
4.44105 6.67801 8
4.44105 6.67801 9
6.37096 6.37111 8
6.37096 6.37111 9
5.67093 5.67106 8
5.67093 5.67106 9
6.37096 6.37111 7
5.67093 5.67106 7
7.50307 4.9883 7
6.67798 4.44109 7
6.37096 6.37111 8
5.67093 5.67106 8
7.50307 4.9883 8
6.67798 4.44109 8
7.50307 4.9883 6
6.67798 4.44109 6
8.3401 3.40892 6
7.42295 3.03586 6
7.50307 4.9883 7
6.67798 4.44109 7
8.3401 3.40892 7
7.42295 3.03586 7
8.3401 3.40892 5
[...]
POINT_DATA 6400
SCALARS U double 1
LOOKUP_TABLE default
-4.53247e-07 -4.56662e-07 8.02524e-07 8.12549e-07 -4.51663e-07 -4.47326e-07 8.15262e-07 8.01375e-07 8.02524e-07 8.12549e-07 -1.22093e-06 -1.25122e-06 8.15262e-07 8.01375e-07 -1.31694e-06 -1.27257e-06 -4.19715e-07 -4.21636e-07 -4.51663e-07 -4.47326e-07 7.77653e-07 7.85587e-07 8.15262e-07 8.01375e-07 -4.53058e-07 -4.56662e-07 -4.52845e-07 -4.47326e-07 8.01848e-07 8.12549e-07 8.16705e-07 8.01375e-07 -1.22093e-06 -1.25122e-06 -6.73192e-06 -6.65689e-06 -1.31694e-06 -1.27257e-06 -6.08209e-06 -6.1892e-06 7.77653e-07 7.85587e-07 8.15262e-07 8.01375e-07 -1.37545e-06 -1.40942e-06 -1.31694e-06 -1.27257e-06 8.01848e-07 8.12549e-07 8.16705e-07 8.01375e-07 -1.21612e-06 -1.25122e-06 -1.32195e-06 -1.27257e-06 -4.09915e-07 -4.10416e-07 -4.19715e-07 -4.21636e-07 7.54421e-07 7.52069e-07 7.77653e-07 7.85587e-07 -4.19258e-07 7.76838e-07 -4.52845e-07 8.16705e-07 -4.21636e-07 7.85587e-07 -4.47326e-07 8.01375e-07 -4.54599e-07 -4.53058e-07 -4.49452e-07 -4.52845e-07 8.07317e-07 8.01848e-07 8.0766e-07 8.16705e-07 -6.73192e-06 -6.65689e-06 7.92315e-05 7.90991e-05 -6.08209e-06 -6.1892e-06 7.34511e-05 7.36277e-05 -1.37545e-06 -1.40942e-06 -1.31694e-06 -1.27257e-06 -5.34409e-06 -5.25376e-06 -6.08209e-06 -6.1892e-06 -1.21612e-06 -1.25122e-06 -1.32195e-06 -1.27257e-06 -6.74451e-06 -6.65689e-06 -6.0756e-06 -6.1892e-06 7.54421e-07 7.52069e-07 7.77653e-07 7.85587e-07 -1.32275e-06 -1.30623e-06 -1.37545e-06 -1.40942e-06 7.76838e-07 -1.37313e-06 8.16705e-07 -1.32195e-06 7.85587e-07 -1.40942e-06 8.01375e-07 -1.27257e-06 8.07317e-07 8.01848e-07 8.0766e-07 8.16705e-07 -1.23924e-06 -1.21612e-06 -1.28923e-06 -1.32195e-06 -4.12185e-07 -4.11571e-07 -4.09915e-07 -4.10416e-07 7.57813e-07 7.58275e-07 7.54421e-07 7.52069e-07 -4.10158e-07 7.55263e-07 -4.19258e-07 7.76838e-07 -4.10416e-07 7.52069e-07 -4.21636e-07 7.85587e-07 -4.19824e-07 7.81555e-07 -4.49452e-07 8.0766e-07 -4.19258e-07 7.76838e-07 -4.52845e-07 8.16705e-07 -4.54204e-07 -4.54599e-07 -4.51048e-07 -4.49452e-07 8.0498e-07 8.07317e-07 8.1245e-07 8.0766e-07 -0.000445046 -0.000444871 -0.000393048 -0.000393262 7.92315e-05 7.90991e-05 7.34511e-05 7.36277e-05 -6.74451e-06 -6.65689e-06 -6.0756e-06 -6.1892e-06 7.92499e-05 7.90991e-05 7.3455e-05 7.36277e-05 -5.34409e-06 -5.25376e-06 -6.08209e-06 -6.1892e-06 7.25917e-05 7.24423e-05 7.34511e-05 7.36277e-05 -1.32275e-06 -1.30623e-06 -1.37545e-06 -1.40942e-06 -5.04525e-06 -5.09359e-06 -5.34409e-06 -5.25376e-06 -1.37313e-06 -5.33986e-06 -1.32195e-06 -6.0756e-06 -1.40942e-06 -5.25376e-06 -1.27257e-06 -6.1892e-06 -1.23924e-06 -1.21612e-06 -1.28923e-06 -1.32195e-06 -6.68056e-06 -6.74451e-06 -6.15281e-06 -6.0756e-06 7.57813e-07 7.58275e-07 7.54421e-07 7.52069e-07 -1.30981e-06 -1.31637e-06 -1.32275e-06 -1.30623e-06 7.55263e-07 -1.32343e-06 7.76838e-07 -1.37313e-06 7.52069e-07 -1.30623e-06 7.85587e-07 -1.40942e-06 7.81555e-07 -1.39752e-06 8.0766e-07 -1.28923e-06 7.76838e-07 -1.37313e-06 8.16705e-07 -1.32195e-06 8.0498e-07 8.07317e-07 8.1245e-07 8.0766e-07 -1.22673e-06 -1.23924e-06 -1.30778e-06 -1.28923e-06 -4.1028e-07 -4.12185e-07 7.5368e-07 7.57813e-07 -4.10733e-07 -4.11571e-07 7.53782e-07 7.58275e-07 -4.12239e-07 7.57754e-07 -4.10158e-07 7.55263e-07 -4.11571e-07 7.58275e-07 -4.10416e-07 7.52069e-07 -4.11385e-07 7.55067e-07 -4.19824e-07 7.81555e-07 -4.10158e-07 7.55263e-07 -4.19258e-07 7.76838e-07 -4.20761e-07 7.80756e-07 -4.51048e-07 8.1245e-07 -4.19824e-07 7.81555e-07 -4.49452e-07 8.0766e-07 -4.54214e-07 -4.54204e-07 -4.50575e-07 -4.51048e-07 8.0576e-07 8.0498e-07 8.10397e-07 8.1245e-07 0.00130178 0.00130157 0.000909952 0.000910192 -0.000445046 -0.000444871 -0.000393048 -0.000393262 -0.00044506 7.92499e-05 -0.000393049 7.3455e-05 -0.000444871 7.90991e-05 -0.000393262 7.36277e-05 -0.000423244 7.25917e-05 -0.000393048 7.34511e-05 -0.00042305 7.24423e-05 -0.000393262 7.36277e-05 -6.68056e-06 -6.74451e-06 -6.15281e-06 -6.0756e-06 7.91376e-05 7.92499e-05 7.35626e-05 7.3455e-05 -5.33986e-06 7.25682e-05 -6.0756e-06 7.3455e-05 -5.25376e-06 7.24423e-05 -6.1892e-06 7.36277e-05 -5.04525e-06 -5.09359e-06 -5.34409e-06 -5.25376e-06 6.78736e-05 6.79477e-05 7.25917e-05 7.24423e-05 -1.30981e-06 -1.31637e-06 -1.32275e-06 -1.30623e-06 -5.28921e-06 -5.26796e-06 -5.04525e-06 -5.09359e-06 -1.32343e-06 -5.05675e-06 -1.37313e-06 -5.33986e-06 -1.30623e-06 -5.09359e-06 -1.40942e-06 -5.25376e-06 -1.39752e-06 -5.28087e-06 -1.28923e-06 -6.15281e-06 -1.37313e-06 -5.33986e-06 -1.32195e-06 -6.0756e-06 -1.22673e-06 -1.23924e-06 -1.30778e-06 -1.28923e-06 -6.71856e-06 -6.68056e-06 -6.11075e-06 -6.15281e-06 7.5368e-07 7.57813e-07 -1.31599e-06 -1.30981e-06 7.53782e-07 7.58275e-07 -1.31458e-06 -1.31637e-06 7.57754e-07 -1.30885e-06 7.55263e-07 -1.32343e-06 7.58275e-07 -1.31637e-06 7.52069e-07 -1.30623e-06 7.55067e-07 -1.31569e-06 7.81555e-07 -1.39752e-06 7.55263e-07 -1.32343e-06 7.76838e-07 -1.37313e-06 7.80756e-07 -1.38633e-06 8.1245e-07 -1.30778e-06 7.81555e-07 -1.39752e-06 8.0766e-07 -1.28923e-06 8.0576e-07 8.0498e-07 8.10397e-07 8.1245e-07 -1.23247e-06 -1.22673e-06 -1.29849e-06 -1.30778e-06 -4.19959e-07 -4.1028e-07 7.80082e-07 7.5368e-07 -4.19951e-07 -4.10733e-07 7.80186e-07 7.53782e-07 -4.10463e-07 -4.10733e-07 7.54034e-07 7.53782e-07 -4.12239e-07 -4.11571e-07 7.57754e-07 7.58275e-07 -4.1241e-07 7.58336e-07 -4.11385e-07 7.55067e-07 -4.12239e-07 7.57754e-07 -4.10158e-07 7.55263e-07 -4.11688e-07 7.55443e-07 -4.20761e-07 7.80756e-07 -4.11385e-07 7.55067e-07 -4.19824e-07 7.81555e-07 -4.19949e-07 7.79926e-07 -4.50575e-07 8.10397e-07 -4.20761e-07 7.80756e-07 -4.51048e-07 8.1245e-07 -4.54224e-07 -4.54214e-07 -4.50492e-07 -4.50575e-07 8.0559e-07 8.0576e-07 8.10821e-07 8.10397e-07 0.00343732 0.00343751 0.00585935 0.00585921 0.00130178 0.00130157 0.000909952 0.000910192 0.00123753 -0.000423244 0.000909952 -0.000393048 0.00123725 -0.00042305 0.000910192 -0.000393262 0.00130178 -0.00044506 0.000909978 -0.000393049 0.00130157 -0.000444871 0.000910192 -0.000393262 -0.000444904 7.91376e-05 -0.00039321 7.35626e-05 -0.00044506 7.92499e-05 -0.000393049 7.3455e-05 -0.000423241 -0.00042305 -0.000393049 -0.000393262 7.25682e-05 7.24423e-05 7.3455e-05 7.36277e-05 -0.000390318 6.78736e-05 -0.000423244 7.25917e-05 -0.000390406 6.79477e-05 -0.00042305 7.24423e-05 -6.71856e-06 -6.68056e-06 -6.11075e-06 -6.15281e-06 7.92063e-05 7.91376e-05 7.35123e-05 7.35626e-05 -5.28087e-06 7.24939e-05 -6.15281e-06 7.35626e-05 -5.33986e-06 7.25682e-05 -6.0756e-06 7.3455e-05 -5.05675e-06 6.79026e-05 -5.33986e-06 7.25682e-05 -5.09359e-06 6.79477e-05 -5.25376e-06 7.24423e-05 -5.28921e-06 -5.26796e-06 -5.04525e-06 -5.09359e-06 6.97387e-05 6.97071e-05 6.78736e-05 6.79477e-05 -1.31599e-06 -1.30981e-06 -5.06428e-06 -5.28921e-06 -1.31458e-06 -1.31637e-06 -5.06909e-06 -5.26796e-06 -1.30885e-06 -5.28369e-06 -1.32343e-06 -5.05675e-06 -1.31637e-06 -5.26796e-06 -1.30623e-06 -5.09359e-06 -1.31569e-06 -5.07876e-06 -1.39752e-06 -5.28087e-06 -1.32343e-06 -5.05675e-06 -1.37313e-06 -5.33986e-06 -1.38633e-06 -5.3141e-06 -1.30778e-06 -6.11075e-06 -1.39752e-06 -5.28087e-06 -1.28923e-06 -6.15281e-06 -1.23247e-06 -1.22673e-06 -1.29849e-06 -1.30778e-06 -6.70318e-06 -6.71856e-06 -6.12876e-06 -6.11075e-06 7.80082e-07 7.5368e-07 -1.38795e-06 -1.31599e-06 7.80186e-07 7.53782e-07 -1.3883e-06 -1.31458e-06 7.54034e-07 7.53782e-07 -1.31629e-06 -1.31458e-06 7.57754e-07 7.58275e-07 -1.30885e-06 -1.31637e-06 7.58336e-07 -1.31259e-06 7.55067e-07 -1.31569e-06 7.57754e-07 -1.30885e-06 7.55263e-07 -1.32343e-06 7.55443e-07 -1.31556e-06 7.80756e-07 -1.38633e-06 7.55067e-07 -1.31569e-06 7.81555e-07 -1.39752e-06 7.79926e-07 -1.38694e-06 8.10397e-07 -1.29849e-06 7.80756e-07 -1.38633e-06 8.1245e-07 -1.30778e-06 8.0559e-07 8.0576e-07 8.10821e-07 8.10397e-07 -1.22991e-06 -1.23247e-06 -1.3022e-06 -1.29849e-06 -4.50637e-07 -4.19959e-07 8.11129e-07 7.80082e-07 -4.50702e-07 -4.19951e-07 8.11228e-07 7.80186e-07 -4.20013e-07 -4.19951e-07 7.80264e-07 7.80186e-07 -4.10463e-07 -4.10733e-07 7.54034e-07 7.53782e-07 -4.11301e-07 -4.10463e-07 7.54947e-07 7.54034e-07 -4.1241e-07 -4.12239e-07 7.58336e-07 7.57754e-07 -4.13339e-07 7.59081e-07 -4.11688e-07 7.55443e-07 -4.1241e-07 7.58336e-07 -4.11385e-07 7.55067e-07 -4.11473e-07 7.54861e-07 -4.19949e-07 7.79926e-07 -4.11688e-07 7.55443e-07 -4.20761e-07 7.80756e-07 -4.20354e-07 7.80588e-07 -4.50492e-07 8.10821e-07 -4.19949e-07 7.79926e-07 -4.50575e-07 8.10397e-07 -4.54244e-07 -4.54224e-07 -4.50646e-07 -4.50492e-07 8.0557e-07 8.0559e-07 8.10929e-07 8.10821e-07 -0.0712961 -0.0712962 -0.0840918 -0.0840918 0.00343732 0.00343751 0.00585935 0.00585921 0.00343733 0.00130178 0.00585929 0.000909978 0.00343751 0.00130157 0.00585921 0.000910192 0.00392761 0.00123753 0.00585935 0.000909952 0.00392791 0.00123725 0.00585921 0.000910192 0.0011007 -0.000390318 0.00123753 -0.000423244 0.00110085 -0.000390406 0.00123725 -0.00042305 0.00123749 0.00123725 0.000909978 0.000910192 -0.000423241 -0.00042305 -0.000393049 -0.000393262 0.00130167 -0.000444904 0.000910106 -0.00039321 0.00130178 -0.00044506 0.000909978 -0.000393049 -0.000445047 7.92063e-05 -0.000393102 7.35123e-05 -0.000444904 7.91376e-05 -0.00039321 7.35626e-05 -0.00042313 -0.000423241 -0.00039321 -0.000393049 7.24939e-05 7.25682e-05 7.35626e-05 7.3455e-05 -0.000390338 -0.000390406 -0.000423241 -0.00042305 6.79026e-05 6.79477e-05 7.25682e-05 7.24423e-05 -0.000399804 6.97387e-05 -0.000390318 6.78736e-05 -0.00039977 6.97071e-05 -0.000390406 6.79477e-05 -6.70318e-06 -6.71856e-06 -6.12876e-06 -6.11075e-06 7.91898e-05 7.92063e-05 7.35217e-05 7.35123e-05 -5.3141e-06 7.25545e-05 -6.11075e-06 7.35123e-05 -5.28087e-06 7.24939e-05 -6.15281e-06 7.35626e-05 -5.07876e-06 6.79398e-05 -5.28087e-06 7.24939e-05 -5.05675e-06 6.79026e-05 -5.33986e-06 7.25682e-05 -5.28369e-06 6.97249e-05 -5.05675e-06 6.79026e-05 -5.26796e-06 6.97071e-05 -5.09359e-06 6.79477e-05 -5.06428e-06 -5.28921e-06 6.79034e-05 6.97387e-05 -5.06909e-06 -5.26796e-06 6.79032e-05 6.97071e-05 -1.38795e-06 -1.31599e-06 -5.30821e-06 -5.06428e-06 -1.3883e-06 -1.31458e-06 -5.30744e-06 -5.06909e-06 -1.31629e-06 -1.31458e-06 -5.07089e-06 -5.06909e-06 -1.30885e-06 -1.31637e-06 -5.28369e-06 -5.26796e-06 -1.31259e-06 -5.28209e-06 -1.31569e-06 -5.07876e-06 -1.30885e-06 -5.28369e-06 -1.32343e-06 -5.05675e-06 -1.31556e-06 -5.08773e-06 -1.38633e-06 -5.3141e-06 -1.31569e-06 -5.07876e-06 -1.39752e-06 -5.28087e-06 -1.38694e-06 -5.31236e-06 -1.29849e-06 -6.12876e-06 -1.38633e-06 -5.3141e-06 -1.30778e-06 -6.11075e-06 -1.22991e-06 -1.23247e-06 -1.3022e-06 -1.29849e-06 -6.70775e-06 -6.70318e-06 -6.12232e-06 -6.12876e-06 8.11129e-07 7.80082e-07 -1.30252e-06 -1.38795e-06 8.11228e-07 7.80186e-07 -1.30317e-06 -1.3883e-06 7.80264e-07 7.80186e-07 -1.38676e-06 -1.3883e-06 7.54034e-07 7.53782e-07 -1.31629e-06 -1.31458e-06 7.54947e-07 7.54034e-07 -1.31623e-06 -1.31629e-06 7.58336e-07 7.57754e-07 -1.31259e-06 -1.30885e-06 7.59081e-07 -1.3096e-06 7.55443e-07 -1.31556e-06 7.58336e-07 -1.31259e-06 7.55067e-07 -1.31569e-06 7.54861e-07 -1.31289e-06 7.79926e-07 -1.38694e-06 7.55443e-07 -1.31556e-06 7.80756e-07 -1.38633e-06 7.80588e-07 -1.38738e-06 8.10821e-07 -1.3022e-06 7.79926e-07 -1.38694e-06 8.10397e-07 -1.29849e-06 8.0557e-07 8.0559e-07 8.10929e-07 8.10821e-07 -1.23106e-06 -1.22991e-06 -1.30106e-06 -1.3022e-06 -4.50637e-07 8.11129e-07 -4.54129e-07 8.0504e-07 -4.50702e-07 8.11228e-07 -4.54494e-07 8.05269e-07 -4.50907e-07 -4.50702e-07 8.11186e-07 8.11228e-07 -4.20013e-07 -4.19951e-07 7.80264e-07 7.80186e-07 -4.20747e-07 -4.20013e-07 7.81322e-07 7.80264e-07 -4.11301e-07 -4.10463e-07 7.54947e-07 7.54034e-07 -4.11777e-07 -4.11301e-07 7.55314e-07 7.54947e-07 -4.13339e-07 -4.1241e-07 7.59081e-07 7.58336e-07 -4.12557e-07 7.57988e-07 -4.11473e-07 7.54861e-07 -4.13339e-07 7.59081e-07 -4.11688e-07 7.55443e-07 -4.11442e-07 -4.11473e-07 7.55005e-07 7.54861e-07 -4.20354e-07 -4.19949e-07 7.80588e-07 7.79926e-07 -4.2036e-07 7.80376e-07 -4.50646e-07 8.10929e-07 -4.20354e-07 7.80588e-07 -4.50492e-07 8.10821e-07 -4.54193e-07 -4.54244e-07 -4.50629e-07 -4.50646e-07 8.05621e-07 8.0557e-07 8.1073e-07 8.10929e-07 0.299331 0.299331 0.355277 0.355277 -0.0712961 -0.0712962 -0.0840918 -0.0840918 -0.0773366 0.00392761 -0.0840918 0.00585935 -0.0773371 0.00392791 -0.0840918 0.00585921 -0.0712961 0.00343733 -0.0840918 0.00585929 -0.0712962 0.00343751 -0.0840918 0.00585921 0.0034373 0.00343733 0.00130167 0.00130178 0.00585951 0.00585929 0.000910106 0.000909978 0.00392772 0.00392791 0.00585929 0.00585921 0.00123749 0.00123725 0.000909978 0.000910192 0.00420546 0.0011007 0.00392761 0.00123753 0.00420521 0.00110085 0.00392791 0.00123725 0.00113612 -0.000399804 0.0011007 -0.000390318 0.00113605 -0.00039977 0.00110085 -0.000390406 0.00110077 0.00110085 0.00123749 0.00123725 -0.000390338 -0.000390406 -0.000423241 -0.00042305 0.00123735 0.00123749 0.000910106 0.000909978 -0.00042313 -0.000423241 -0.00039321 -0.000393049 0.00130181 -0.000445047 0.000910018 -0.000393102 0.00130167 -0.000444904 0.000910106 -0.00039321 -0.000444931 7.91898e-05 -0.000393167 7.35217e-05 -0.000445047 7.92063e-05 -0.000393102 7.35123e-05 -0.000423235 -0.00042313 -0.000393102 -0.00039321 7.25545e-05 7.24939e-05 7.35123e-05 7.35626e-05 -0.000390392 -0.000390338 -0.00042313 -0.000423241 6.79398e-05 6.79026e-05 7.24939e-05 7.25682e-05 -0.00039979 -0.00039977 -0.000390338 -0.000390406 6.97249e-05 6.97071e-05 6.79026e-05 6.79477e-05 -0.000390336 -0.00039032 6.79034e-05 6.79032e-05 -0.000399804 -0.00039977 6.97387e-05 6.97071e-05 -6.70775e-06 -6.70318e-06 -6.12232e-06 -6.12876e-06 7.91725e-05 7.91898e-05 7.35305e-05 7.35217e-05 -5.31236e-06 7.25383e-05 -6.12876e-06 7.35217e-05 -5.3141e-06 7.25545e-05 -6.11075e-06 7.35123e-05 -5.08773e-06 6.7958e-05 -5.3141e-06 7.25545e-05 -5.07876e-06 6.79398e-05 -5.28087e-06 7.24939e-05 -5.28209e-06 6.97342e-05 -5.07876e-06 6.79398e-05 -5.28369e-06 6.97249e-05 -5.05675e-06 6.79026e-05 -5.07089e-06 -5.06909e-06 6.79171e-05 6.79032e-05 -5.28369e-06 -5.26796e-06 6.97249e-05 6.97071e-05 -5.30821e-06 -5.06428e-06 7.25236e-05 6.79034e-05 -5.30744e-06 -5.06909e-06 7.25255e-05 6.79032e-05 -1.30252e-06 -1.38795e-06 -6.11857e-06 -5.30821e-06 -1.30317e-06 -1.3883e-06 -6.11464e-06 -5.30744e-06 -1.38676e-06 -1.3883e-06 -5.30921e-06 -5.30744e-06 -1.31629e-06 -1.31458e-06 -5.07089e-06 -5.06909e-06 -1.31623e-06 -1.31629e-06 -5.07332e-06 -5.07089e-06 -1.31259e-06 -1.30885e-06 -5.28209e-06 -5.28369e-06 -1.3096e-06 -5.29124e-06 -1.31556e-06 -5.08773e-06 -1.31259e-06 -5.28209e-06 -1.31569e-06 -5.07876e-06 -1.31289e-06 -5.0856e-06 -1.38694e-06 -5.31236e-06 -1.31556e-06 -5.08773e-06 -1.38633e-06 -5.3141e-06 -1.38738e-06 -5.30884e-06 -1.3022e-06 -6.12232e-06 -1.38694e-06 -5.31236e-06 -1.29849e-06 -6.12876e-06 -1.23106e-06 -1.22991e-06 -1.30106e-06 -1.3022e-06 -6.7057e-06 -6.70775e-06 -6.12462e-06 -6.12232e-06 8.11129e-07 -1.30252e-06 8.0504e-07 -1.22972e-06 8.11228e-07 -1.30317e-06 8.05269e-07 -1.22879e-06 8.11186e-07 8.11228e-07 -1.30121e-06 -1.30317e-06 7.80264e-07 7.80186e-07 -1.38676e-06 -1.3883e-06 7.81322e-07 7.80264e-07 -1.38933e-06 -1.38676e-06 7.54947e-07 7.54034e-07 -1.31623e-06 -1.31629e-06 7.55314e-07 7.54947e-07 -1.31513e-06 -1.31623e-06 7.59081e-07 7.58336e-07 -1.3096e-06 -1.31259e-06 7.57988e-07 -1.30896e-06 7.54861e-07 -1.31289e-06 7.59081e-07 -1.3096e-06 7.55443e-07 -1.31556e-06 7.55005e-07 7.54861e-07 -1.31548e-06 -1.31289e-06 7.80588e-07 7.79926e-07 -1.38738e-06 -1.38694e-06 7.80376e-07 -1.38721e-06 8.10929e-07 -1.30106e-06 7.80588e-07 -1.38738e-06 8.10821e-07 -1.3022e-06 8.05621e-07 8.0557e-07 8.1073e-07 8.10929e-07 -1.23086e-06 -1.23106e-06 -1.30043e-06 -1.30106e-06 -4.50907e-07 -4.50702e-07 -4.54126e-07 -4.54494e-07 8.11186e-07 8.11228e-07 8.05595e-07 8.05269e-07 -4.51328e-07 -4.50907e-07 8.11892e-07 8.11186e-07 -4.20747e-07 -4.20013e-07 7.81322e-07 7.80264e-07 -4.2136e-07 -4.20747e-07 7.81473e-07 7.81322e-07 -4.11777e-07 -4.11301e-07 7.55314e-07 7.54947e-07 -4.1137e-07 -4.11777e-07 7.54629e-07 7.55314e-07 -4.12557e-07 -4.13339e-07 7.57988e-07 7.59081e-07 -4.1281e-07 -4.12557e-07 7.58597e-07 7.57988e-07 -4.11442e-07 -4.11473e-07 7.55005e-07 7.54861e-07 -4.11435e-07 -4.11442e-07 7.55002e-07 7.55005e-07 -4.2036e-07 -4.20354e-07 7.80376e-07 7.80588e-07 -4.20106e-07 7.80271e-07 -4.50629e-07 8.1073e-07 -4.2036e-07 7.80376e-07 -4.50646e-07 8.10929e-07 -4.54266e-07 -4.54193e-07 -4.50537e-07 -4.50629e-07 8.05524e-07 8.05621e-07 8.11064e-07 8.1073e-07 0.299331 0.299331 8.91006 8.91006 0.355277 0.355277 8.91006 8.91006 0.346997 -0.0773366 0.355277 -0.0840918 0.346998 -0.0773371 0.355277 -0.0840918 0.299331 -0.0712961 0.355277 -0.0840918 0.299331 -0.0712962 0.355277 -0.0840918 -0.077913 0.00420546 -0.0773366 0.00392761 -0.0779121 0.00420521 -0.0773371 0.00392791 -0.077337 -0.0773371 -0.0840918 -0.0840918 0.00392772 0.00392791 0.00585929 0.00585921 -0.0712961 0.0034373 -0.0840916 0.00585951 -0.0712961 0.00343733 -0.0840918 0.00585929 0.00343725 0.0034373 0.00130181 0.00130167 0.00585944 0.00585951 0.000910018 0.000910106 0.00392772 0.00392772 0.00585951 0.00585929 0.00123735 0.00123749 0.000910106 0.000909978 0.00420523 0.00420521 0.00392772 0.00392791 0.00110077 0.00110085 0.00123749 0.00123725 0.00405815 0.00113612 0.00420546 0.0011007 0.0040584 0.00113605 0.00420521 0.00110085 0.00110062 0.00110064 -0.000390336 -0.00039032 0.00113612 0.00113605 -0.000399804 -0.00039977 0.00113607 0.00113605 0.00110077 0.00110085 -0.00039979 -0.00039977 -0.000390338 -0.000390406 0.00110075 0.00110077 0.00123735 0.00123749 -0.000390392 -0.000390338 -0.00042313 -0.000423241 0.00123744 0.00123735 0.000910018 0.000910106 -0.000423235 -0.00042313 -0.000393102 -0.00039321 0.00130171 -0.000444931 0.000910133 -0.000393167 0.00130181 -0.000445047 0.000910018 -0.000393102 -0.000444995 7.91725e-05 -0.000393157 7.35305e-05 -0.000444931 7.91898e-05 -0.000393167 7.35217e-05 -0.000423165 -0.000423235 -0.000393167 -0.000393102 7.25383e-05 7.25545e-05 7.35217e-05 7.35123e-05 -0.000390387 -0.000390392 -0.000423235 -0.00042313 6.7958e-05 6.79398e-05 7.25545e-05 7.24939e-05 -0.000399786 -0.00039979 -0.000390392 -0.000390338 6.97342e-05 6.97249e-05 6.79398e-05 6.79026e-05 -0.000390336 -0.00039979 6.79171e-05 6.97249e-05 -0.00039032 -0.00039977 6.79032e-05 6.97071e-05 -0.000423167 -0.000423178 7.25236e-05 7.25255e-05 -0.000390336 -0.00039032 6.79034e-05 6.79032e-05 -6.7057e-06 -6.70775e-06 -6.12462e-06 -6.12232e-06 7.9198e-05 7.91725e-05 7.35176e-05 7.35305e-05 -5.30884e-06 7.25363e-05 -6.12232e-06 7.35305e-05 -5.31236e-06 7.25383e-05 -6.12876e-06 7.35217e-05 -5.0856e-06 6.79461e-05 -5.31236e-06 7.25383e-05 -5.08773e-06 6.7958e-05 -5.3141e-06 7.25545e-05 -5.29124e-06 6.97562e-05 -5.08773e-06 6.7958e-05 -5.28209e-06 6.97342e-05 -5.07876e-06 6.79398e-05 -5.07332e-06 -5.07089e-06 6.79243e-05 6.79171e-05 -5.28209e-06 -5.28369e-06 6.97342e-05 6.97249e-05 -5.30921e-06 -5.30744e-06 7.25201e-05 7.25255e-05 -5.07089e-06 -5.06909e-06 6.79171e-05 6.79032e-05 -6.11857e-06 -5.30821e-06 7.35199e-05 7.25236e-05 -6.11464e-06 -5.30744e-06 7.35019e-05 7.25255e-05 -1.30252e-06 -6.11857e-06 -1.22972e-06 -6.70598e-06 -1.30317e-06 -6.11464e-06 -1.22879e-06 -6.7125e-06 -1.30121e-06 -1.30317e-06 -6.12778e-06 -6.11464e-06 -1.38676e-06 -1.3883e-06 -5.30921e-06 -5.30744e-06 -1.38933e-06 -1.38676e-06 -5.31257e-06 -5.30921e-06 -1.31623e-06 -1.31629e-06 -5.07332e-06 -5.07089e-06 -1.31513e-06 -1.31623e-06 -5.08402e-06 -5.07332e-06 -1.3096e-06 -1.31259e-06 -5.29124e-06 -5.28209e-06 -1.30896e-06 -5.29256e-06 -1.31289e-06 -5.0856e-06 -1.3096e-06 -5.29124e-06 -1.31556e-06 -5.08773e-06 -1.31548e-06 -1.31289e-06 -5.08357e-06 -5.0856e-06 -1.38738e-06 -1.38694e-06 -5.30884e-06 -5.31236e-06 -1.38721e-06 -5.3118e-06 -1.30106e-06 -6.12462e-06 -1.38738e-06 -5.30884e-06 -1.3022e-06 -6.12232e-06 -1.23086e-06 -1.23106e-06 -1.30043e-06 -1.30106e-06 -6.70627e-06 -6.7057e-06 -6.12709e-06 -6.12462e-06 8.11186e-07 8.11228e-07 8.05595e-07 8.05269e-07 -1.30121e-06 -1.30317e-06 -1.22911e-06 -1.22879e-06 8.11892e-07 8.11186e-07 -1.30266e-06 -1.30121e-06 7.81322e-07 7.80264e-07 -1.38933e-06 -1.38676e-06 7.81473e-07 7.81322e-07 -1.38585e-06 -1.38933e-06 7.55314e-07 7.54947e-07 -1.31513e-06