# vtk DataFile Version 3.0
#This file was generated by the deal.II library on 2019/10/7 at 9:07:57
ASCII
DATASET UNSTRUCTURED_GRID

POINTS 24000 double
9.29026 1.47143 9
9.29026 1.47143 10
9.40606 0 9
9.40606 0 10
9.87688 1.56434 9
9.87688 1.56434 10
10 0 9
10 0 10
9.29026 1.47143 8
9.29026 1.47143 9
9.40606 0 8
9.40606 0 9
9.87688 1.56434 8
9.87688 1.56434 9
10 0 8
10 0 9
8.94569 2.90663 9
8.94569 2.90663 10
9.29026 1.47143 9
9.29026 1.47143 10
9.51057 3.09017 9
9.51056 3.09017 10
9.87688 1.56434 9
9.87688 1.56434 10
8.72183 1.3814 9
8.72183 1.3814 10
8.83055 0 9
8.83055 0 10
9.29026 1.47143 9
9.29026 1.47143 10
9.40606 0 9
9.40606 0 10
9.29026 1.47143 7
9.29026 1.47143 8
9.40606 0 7
9.40606 0 8
9.87688 1.56434 7
9.87688 1.56434 8
10 0 7
10 0 8
8.72183 1.3814 8
8.72183 1.3814 9
8.83055 0 8
8.83055 0 9
9.29026 1.47143 8
9.29026 1.47143 9
9.40606 0 8
9.40606 0 9
8.94569 2.90663 8
8.94569 2.90663 9
9.29026 1.47143 8
9.29026 1.47143 9
9.51057 3.09017 8
9.51057 3.09017 9
9.87688 1.56434 8
9.87688 1.56434 9
8.94569 2.90663 9
8.94569 2.90663 10
9.51057 3.09017 9
9.51056 3.09017 10
8.38086 4.27026 9
8.38086 4.27026 10
8.91007 4.5399 9
8.91006 4.5399 10
8.39835 2.72879 9
8.72183 1.3814 9
8.94569 2.90663 9
9.29026 1.47143 9
8.39835 2.72879 10
8.72183 1.3814 10
8.94569 2.90663 10
9.29026 1.47143 10
8.17162 1.29426 9
8.17162 1.29426 10
8.27348 0 9
8.27348 0 10
8.72183 1.3814 9
8.72183 1.3814 10
8.83055 0 9
8.83055 0 10
9.29026 1.47143 6
9.29026 1.47143 7
9.40606 0 6
9.40606 0 7
9.87688 1.56434 6
9.87688 1.56434 7
10 0 6
10 0 7
8.94569 2.90663 7
8.94569 2.90663 8
9.29026 1.47143 7
9.29026 1.47143 8
9.51057 3.09017 7
9.51057 3.09017 8
9.87688 1.56434 7
9.87688 1.56434 8
8.72183 1.3814 7
8.72183 1.3814 8
8.83055 0 7
8.83055 0 8
9.29026 1.47143 7
9.29026 1.47143 8
9.40606 0 7
9.40606 0 8
8.17162 1.29426 8
8.17162 1.29426 9
8.27348 0 8
8.27348 0 9
8.72183 1.3814 8
8.72183 1.3814 9
8.83055 0 8
8.83055 0 9
8.39835 2.72879 8
8.72183 1.3814 8
8.94569 2.90663 8
9.29026 1.47143 8
8.39835 2.72879 9
8.72183 1.3814 9
8.94569 2.90663 9
9.29026 1.47143 9
8.94569 2.90663 8
8.94569 2.90663 9
9.51057 3.09017 8
9.51057 3.09017 9
8.38086 4.27026 8
8.38086 4.27026 9
8.91007 4.5399 8
8.91007 4.5399 9
7.60966 5.52874 9
8.38086 4.27026 9
8.09017 5.87785 9
8.91007 4.5399 9
7.60966 5.52874 10
8.38086 4.27026 10
8.09017 5.87785 10
8.91006 4.5399 10
8.39835 2.72879 9
8.39835 2.72879 10
8.94569 2.90663 9
8.94569 2.90663 10
7.86808 4.00898 9
7.86808 4.00898 10
8.38086 4.27026 9
8.38086 4.27026 10
7.86855 2.55664 9
8.17162 1.29426 9
8.39835 2.72879 9
8.72183 1.3814 9
7.86855 2.55664 10
8.17162 1.29426 10
8.39835 2.72879 10
8.72183 1.3814 10
7.63961 1.20999 9
7.63961 1.20999 10
7.73484 0 9
7.73484 0 10
8.17162 1.29426 9
8.17162 1.29426 10
8.27348 0 9
8.27348 0 10
9.29026 1.47143 5
9.29026 1.47143 6
9.40606 0 5
9.40606 0 6
9.87688 1.56434 5
9.87688 1.56434 6
10 0 5
10 0 6
8.94569 2.90663 6
8.94569 2.90663 7
9.29026 1.47143 6
9.29026 1.47143 7
9.51057 3.09017 6
9.51057 3.09017 7
9.87688 1.56434 6
9.87688 1.56434 7
8.72183 1.3814 6
8.72183 1.3814 7
8.83055 0 6
8.83055 0 7
9.29026 1.47143 6
9.29026 1.47143 7
9.40606 0 6
9.40606 0 7
8.94569 2.90663 7
8.94569 2.90663 8
9.51057 3.09017 7
9.51057 3.09017 8
8.38086 4.27026 7
8.38086 4.27026 8
8.91007 4.5399 7
8.91007 4.5399 8
8.39835 2.72879 7
8.72183 1.3814 7
8.94569 2.90663 7
9.29026 1.47143 7
8.39835 2.72879 8
8.72183 1.3814 8
8.94569 2.90663 8
9.29026 1.47143 8
8.17162 1.29426 7
8.17162 1.29426 8
8.27348 0 7
8.27348 0 8
8.72183 1.3814 7
8.72183 1.3814 8
8.83055 0 7
8.83055 0 8
7.63961 1.20999 8
7.63961 1.20999 9
7.73484 0 8
7.73484 0 9
8.17162 1.29426 8
8.17162 1.29426 9
8.27348 0 8
8.27348 0 9
7.86855 2.55664 8
8.17162 1.29426 8
8.39835 2.72879 8
8.72183 1.3814 8
7.86855 2.55664 9
8.17162 1.29426 9
8.39835 2.72879 9
8.72183 1.3814 9
8.39835 2.72879 8
8.39835 2.72879 9
8.94569 2.90663 8
8.94569 2.90663 9
7.86808 4.00898 8
7.86808 4.00898 9
8.38086 4.27026 8
8.38086 4.27026 9
7.60966 5.52874 8
8.38086 4.27026 8
8.09017 5.87785 8
8.91007 4.5399 8
7.60966 5.52874 9
8.38086 4.27026 9
8.09017 5.87785 9
8.91007 4.5399 9
7.60966 5.52874 9
7.60966 5.52874 10
8.09017 5.87785 9
8.09017 5.87785 10
6.65109 6.65109 9
6.65109 6.65109 10
7.07107 7.07107 9
7.07107 7.07107 10
7.14407 5.19047 9
7.86808 4.00898 9
7.60966 5.52874 9
8.38086 4.27026 9
7.14407 5.19047 10
7.86808 4.00898 10
7.60966 5.52874 10
8.38086 4.27026 10
7.86855 2.55664 9
7.86855 2.55664 10
8.39835 2.72879 9
8.39835 2.72879 10
7.37172 3.75608 9
7.37172 3.75608 10
7.86808 4.00898 9
7.86808 4.00898 10
7.35627 2.39019 9
7.63961 1.20999 9
7.86855 2.55664 9
8.17162 1.29426 9
7.35627 2.39019 10
7.63961 1.20999 10
7.86855 2.55664 10
8.17162 1.29426 10
7.1258 1.12862 9
7.1258 1.12862 10
7.21463 0 9
7.21463 0 10
7.63961 1.20999 9
7.63961 1.20999 10
7.73484 0 9
7.73484 0 10
9.29026 1.47143 4
9.29026 1.47143 5
9.40606 0 4
9.40606 0 5
9.87688 1.56434 4
9.87688 1.56434 5
10 0 4
10 0 5
8.72183 1.3814 5
8.72183 1.3814 6
8.83055 0 5
8.83055 0 6
9.29026 1.47143 5
9.29026 1.47143 6
9.40606 0 5
9.40606 0 6
8.94569 2.90663 5
8.94569 2.90663 6
9.29026 1.47143 5
9.29026 1.47143 6
9.51057 3.09017 5
9.51057 3.09017 6
9.87688 1.56434 5
9.87688 1.56434 6
8.94569 2.90663 6
8.94569 2.90663 7
9.51057 3.09017 6
9.51057 3.09017 7
8.38086 4.27026 6
8.38086 4.27026 7
8.91007 4.5399 6
8.91007 4.5399 7
8.39835 2.72879 6
8.72183 1.3814 6
8.94569 2.90663 6
9.29026 1.47143 6
8.39835 2.72879 7
8.72183 1.3814 7
8.94569 2.90663 7
9.29026 1.47143 7
8.17162 1.29426 6
8.17162 1.29426 7
8.27348 0 6
8.27348 0 7
8.72183 1.3814 6
8.72183 1.3814 7
8.83055 0 6
8.83055 0 7
7.60966 5.52874 7
8.38086 4.27026 7
8.09017 5.87785 7
8.91007 4.5399 7
7.60966 5.52874 8
8.38086 4.27026 8
8.09017 5.87785 8
8.91007 4.5399 8
8.39835 2.72879 7
8.39835 2.72879 8
8.94569 2.90663 7
8.94569 2.90663 8
7.86808 4.00898 7
7.86808 4.00898 8
8.38086 4.27026 7
8.38086 4.27026 8
7.86855 2.55664 7
8.17162 1.29426 7
8.39835 2.72879 7
8.72183 1.3814 7
7.86855 2.55664 8
8.17162 1.29426 8
8.39835 2.72879 8
8.72183 1.3814 8
7.63961 1.20999 7
7.63961 1.20999 8
7.73484 0 7
7.73484 0 8
8.17162 1.29426 7
8.17162 1.29426 8
8.27348 0 7
8.27348 0 8
7.1258 1.12862 8
7.1258 1.12862 9
7.21463 0 8
7.21463 0 9
7.63961 1.20999 8
7.63961 1.20999 9
7.73484 0 8
7.73484 0 9
7.35627 2.39019 8
7.63961 1.20999 8
7.86855 2.55664 8
8.17162 1.29426 8
7.35627 2.39019 9
7.63961 1.20999 9
7.86855 2.55664 9
8.17162 1.29426 9
7.86855 2.55664 8
7.86855 2.55664 9
8.39835 2.72879 8
8.39835 2.72879 9
7.37172 3.75608 8
7.37172 3.75608 9
7.86808 4.00898 8
7.86808 4.00898 9
7.14407 5.19047 8
7.86808 4.00898 8
7.60966 5.52874 8
8.38086 4.27026 8
7.14407 5.19047 9
7.86808 4.00898 9
7.60966 5.52874 9
8.38086 4.27026 9
7.60966 5.52874 8
7.60966 5.52874 9
8.09017 5.87785 8
8.09017 5.87785 9
6.65109 6.65109 8
6.65109 6.65109 9
7.07107 7.07107 8
7.07107 7.07107 9
6.65109 6.65109 9
6.65109 6.65109 10
7.07107 7.07107 9
7.07107 7.07107 10
5.52875 7.60966 9
5.52875 7.60966 10
5.87786 8.09017 9
5.87786 8.09017 10
7.14407 5.19047 9
7.14407 5.19047 10
7.60966 5.52874 9
7.60966 5.52874 10
6.24415 6.24414 9
6.24415 6.24414 10
6.65109 6.65109 9
6.65109 6.65109 10
6.69339 4.86303 9
7.37172 3.75608 9
7.14407 5.19047 9
7.86808 4.00898 9
6.69339 4.86303 10
7.37172 3.75608 10
7.14407 5.19047 10
7.86808 4.00898 10
7.35627 2.39019 9
7.35627 2.39019 10
7.86855 2.55664 9
7.86855 2.55664 10
6.89179 3.51154 9
6.89179 3.51154 10
7.37172 3.75608 9
7.37172 3.75608 10
6.86152 2.22944 9
7.1258 1.12862 9
7.35627 2.39019 9
7.63961 1.20999 9
6.86152 2.22944 10
7.1258 1.12862 10
7.35627 2.39019 10
7.63961 1.20999 10
6.6302 1.05012 9
6.6302 1.05012 10
6.71285 0 9
6.71285 0 10
7.1258 1.12862 9
7.1258 1.12862 10
7.21463 0 9
7.21463 0 10
9.29026 1.47143 3
9.29026 1.47143 4
9.40606 0 3
9.40606 0 4
9.87688 1.56434 3
9.87688 1.56434 4
10 0 3
10 0 4
8.72183 1.3814 4
8.72183 1.3814 5
8.83055 0 4
8.83055 0 5
9.29026 1.47143 4
9.29026 1.47143 5
9.40606 0 4
9.40606 0 5
8.94569 2.90663 4
8.94569 2.90663 5
9.29026 1.47143 4
9.29026 1.47143 5
9.51057 3.09017 4
9.51057 3.09017 5
9.87688 1.56434 4
9.87688 1.56434 5
8.17162 1.29426 5
8.17162 1.29426 6
8.27348 0 5
8.27348 0 6
8.72183 1.3814 5
8.72183 1.3814 6
8.83055 0 5
8.83055 0 6
8.39835 2.72879 5
8.72183 1.3814 5
8.94569 2.90663 5
9.29026 1.47143 5
8.39835 2.72879 6
8.72183 1.3814 6
8.94569 2.90663 6
9.29026 1.47143 6
8.94569 2.90663 5
8.94569 2.90663 6
9.51057 3.09017 5
9.51057 3.09017 6
8.38086 4.27026 5
8.38086 4.27026 6
8.91007 4.5399 5
8.91007 4.5399 6
7.60966 5.52874 6
8.38086 4.27026 6
8.09017 5.87785 6
8.91007 4.5399 6
7.60966 5.52874 7
8.38086 4.27026 7
8.09017 5.87785 7
8.91007 4.5399 7
8.39835 2.72879 6
8.39835 2.72879 7
8.94569 2.90663 6
8.94569 2.90663 7
7.86808 4.00898 6
7.86808 4.00898 7
8.38086 4.27026 6
8.38086 4.27026 7
7.86855 2.55664 6
8.17162 1.29426 6
8.39835 2.72879 6
8.72183 1.3814 6
7.86855 2.55664 7
8.17162 1.29426 7
8.39835 2.72879 7
8.72183 1.3814 7
7.63961 1.20999 6
7.63961 1.20999 7
7.73484 0 6
7.73484 0 7
8.17162 1.29426 6
8.17162 1.29426 7
8.27348 0 6
8.27348 0 7
7.60966 5.52874 7
7.60966 5.52874 8
8.09017 5.87785 7
8.09017 5.87785 8
6.65109 6.65109 7
6.65109 6.65109 8
7.07107 7.07107 7
7.07107 7.07107 8
7.14407 5.19047 7
7.86808 4.00898 7
7.60966 5.52874 7
8.38086 4.27026 7
7.14407 5.19047 8
7.86808 4.00898 8
7.60966 5.52874 8
8.38086 4.27026 8
7.86855 2.55664 7
7.86855 2.55664 8
8.39835 2.72879 7
8.39835 2.72879 8
7.37172 3.75608 7
7.37172 3.75608 8
7.86808 4.00898 7
7.86808 4.00898 8
7.35627 2.39019 7
7.63961 1.20999 7
7.86855 2.55664 7
8.17162 1.29426 7
7.35627 2.39019 8
7.63961 1.20999 8
7.86855 2.55664 8
8.17162 1.29426 8
7.1258 1.12862 7
7.1258 1.12862 8
7.21463 0 7
7.21463 0 8
7.63961 1.20999 7
7.63961 1.20999 8
7.73484 0 7
7.73484 0 8
6.6302 1.05012 8
6.6302 1.05012 9
6.71285 0 8
6.71285 0 9
7.1258 1.12862 8
7.1258 1.12862 9
7.21463 0 8
7.21463 0 9
6.86152 2.22944 8
7.1258 1.12862 8
7.35627 2.39019 8
7.63961 1.20999 8
6.86152 2.22944 9
7.1258 1.12862 9
7.35627 2.39019 9
7.63961 1.20999 9
7.35627 2.39019 8
7.35627 2.39019 9
[...]
POINT_DATA 24000
SCALARS U double 1
LOOKUP_TABLE default
-1.45123e-23 -1.37781e-23 -1.31513e-23 -1.38889e-23 2.99792e-24 3.52139e-24 2.91816e-24 1.58241e-24 -1.33758e-23 -1.45123e-23 -1.61833e-23 -1.31513e-23 2.92858e-24 2.99792e-24 3.14084e-24 2.91816e-24 -1.35876e-23 -1.45532e-23 -1.45123e-23 -1.37781e-23 2.39194e-24 2.86783e-24 2.99792e-24 3.52139e-24 1.4534e-22 1.41584e-22 1.40373e-22 1.47472e-22 -1.45123e-23 -1.37781e-23 -1.31513e-23 -1.38889e-23 -1.54296e-23 -1.33758e-23 -9.52824e-24 -1.61833e-23 2.54713e-24 2.92858e-24 1.9245e-24 3.14084e-24 1.41502e-22 1.4534e-22 1.51911e-22 1.40373e-22 -1.33758e-23 -1.45123e-23 -1.61833e-23 -1.31513e-23 -1.54069e-23 -1.35876e-23 -1.33758e-23 -1.45123e-23 3.47501e-24 2.39194e-24 2.92858e-24 2.99792e-24 -1.35876e-23 -1.45532e-23 2.39194e-24 2.86783e-24 -1.53416e-23 -1.3086e-23 3.58266e-24 2.70189e-24 1.44479e-22 1.4534e-22 -1.35876e-23 -1.45123e-23 1.42752e-22 1.41584e-22 -1.45532e-23 -1.37781e-23 -1.56718e-21 -1.58514e-21 -1.6149e-21 -1.62796e-21 1.4534e-22 1.41584e-22 1.40373e-22 1.47472e-22 -1.30359e-23 -1.54296e-23 -2.21708e-23 -9.52824e-24 3.62866e-24 2.54713e-24 4.70371e-24 1.9245e-24 -1.14236e-23 -1.54069e-23 -1.54296e-23 -1.33758e-23 2.34062e-24 3.47501e-24 2.54713e-24 2.92858e-24 1.46748e-22 1.41502e-22 1.29604e-22 1.51911e-22 -1.54296e-23 -1.33758e-23 -9.52824e-24 -1.61833e-23 -1.60983e-21 -1.56718e-21 -1.53492e-21 -1.6149e-21 1.41502e-22 1.4534e-22 1.51911e-22 1.40373e-22 1.48296e-22 1.41502e-22 -1.54069e-23 -1.33758e-23 1.44479e-22 1.4534e-22 -1.35876e-23 -1.45123e-23 -1.54069e-23 -1.35876e-23 3.47501e-24 2.39194e-24 -1.15459e-23 -1.53416e-23 2.41391e-24 3.58266e-24 -1.3618e-23 -1.53416e-23 3.09916e-24 3.58266e-24 -1.43864e-23 -1.3086e-23 3.94986e-24 2.70189e-24 1.44479e-22 1.42752e-22 -1.35876e-23 -1.45532e-23 1.46793e-22 1.4545e-22 -1.53416e-23 -1.3086e-23 -1.62612e-21 -1.56718e-21 1.44479e-22 1.4534e-22 -1.55986e-21 -1.58514e-21 1.42752e-22 1.41584e-22 1.85351e-20 1.86809e-20 1.91104e-20 1.93042e-20 -1.56718e-21 -1.58514e-21 -1.6149e-21 -1.62796e-21 -1.61877e-23 -1.30359e-23 2.46246e-24 -2.21708e-23 3.02648e-24 3.62866e-24 3.42383e-24 4.70371e-24 -1.55682e-23 -1.14236e-23 -1.30359e-23 -1.54296e-23 3.37116e-24 2.34062e-24 3.62866e-24 2.54713e-24 1.46936e-22 1.46748e-22 1.61346e-22 1.29604e-22 -1.30359e-23 -1.54296e-23 -2.21708e-23 -9.52824e-24 -1.14236e-23 -1.54069e-23 2.34062e-24 3.47501e-24 -1.97068e-23 -1.15459e-23 4.34382e-24 2.41391e-24 1.40196e-22 1.46748e-22 -1.14236e-23 -1.54296e-23 1.48296e-22 1.41502e-22 -1.54069e-23 -1.33758e-23 -1.5195e-21 -1.60983e-21 -1.70026e-21 -1.53492e-21 1.46748e-22 1.41502e-22 1.29604e-22 1.51911e-22 1.8882e-20 1.85351e-20 1.83162e-20 1.91104e-20 -1.60983e-21 -1.56718e-21 -1.53492e-21 -1.6149e-21 -1.54028e-21 -1.60983e-21 1.48296e-22 1.41502e-22 -1.62612e-21 -1.56718e-21 1.44479e-22 1.4534e-22 1.48296e-22 1.44479e-22 -1.54069e-23 -1.35876e-23 1.33298e-22 1.46793e-22 -1.15459e-23 -1.53416e-23 -1.53551e-23 -1.15459e-23 1.63383e-24 2.41391e-24 -1.3618e-23 -1.53416e-23 3.09916e-24 3.58266e-24 -1.3618e-23 -1.43864e-23 3.09916e-24 3.94986e-24 -1.77597e-23 -6.67024e-24 4.52615e-24 -2.4801e-24 1.45896e-22 1.46793e-22 -1.3618e-23 -1.53416e-23 1.2409e-22 1.4545e-22 -1.43864e-23 -1.3086e-23 -1.62612e-21 -1.55986e-21 1.44479e-22 1.42752e-22 -1.54482e-21 -1.61073e-21 1.46793e-22 1.4545e-22 1.90903e-20 1.85351e-20 -1.62612e-21 -1.56718e-21 1.89293e-20 1.86809e-20 -1.55986e-21 -1.58514e-21 -2.39755e-19 -2.38593e-19 -2.415e-19 -2.45256e-19 1.85351e-20 1.86809e-20 1.91104e-20 1.93042e-20 -7.42823e-24 -1.61877e-23 -3.32655e-23 2.46246e-24 8.18316e-24 3.02648e-24 -8.61664e-24 3.42383e-24 1.32453e-22 1.46936e-22 8.71325e-23 1.61346e-22 -1.61877e-23 -1.30359e-23 2.46246e-24 -2.21708e-23 -1.13904e-23 -1.55682e-23 -1.61877e-23 -1.30359e-23 -1.07194e-24 3.37116e-24 3.02648e-24 3.62866e-24 -1.55682e-23 -1.14236e-23 3.37116e-24 2.34062e-24 -1.11421e-23 -1.97068e-23 2.65735e-24 4.34382e-24 1.36025e-22 1.46936e-22 -1.55682e-23 -1.30359e-23 1.40196e-22 1.46748e-22 -1.14236e-23 -1.54296e-23 -1.67461e-21 -1.5195e-21 -1.37286e-21 -1.70026e-21 1.46936e-22 1.46748e-22 1.61346e-22 1.29604e-22 -8.76032e-24 -1.97068e-23 2.6641e-24 4.34382e-24 -1.53551e-23 -1.15459e-23 1.63383e-24 2.41391e-24 1.40196e-22 1.48296e-22 -1.14236e-23 -1.54069e-23 1.62488e-22 1.33298e-22 -1.97068e-23 -1.15459e-23 -1.71169e-21 -1.5195e-21 1.40196e-22 1.46748e-22 -1.54028e-21 -1.60983e-21 1.48296e-22 1.41502e-22 1.83161e-20 1.8882e-20 1.97443e-20 1.83162e-20 -1.5195e-21 -1.60983e-21 -1.70026e-21 -1.53492e-21 -2.38171e-19 -2.39755e-19 -2.43367e-19 -2.415e-19 1.8882e-20 1.85351e-20 1.83162e-20 1.91104e-20 1.8377e-20 1.8882e-20 -1.54028e-21 -1.60983e-21 1.90903e-20 1.85351e-20 -1.62612e-21 -1.56718e-21 -1.54028e-21 -1.62612e-21 1.48296e-22 1.44479e-22 -1.63646e-21 -1.54482e-21 1.33298e-22 1.46793e-22 1.49786e-22 1.33298e-22 -1.53551e-23 -1.15459e-23 1.45896e-22 1.46793e-22 -1.3618e-23 -1.53416e-23 -1.53551e-23 -1.3618e-23 1.63383e-24 3.09916e-24 -7.51371e-24 -1.77597e-23 7.98541e-25 4.52615e-24 -1.77597e-23 -6.67024e-24 4.52615e-24 -2.4801e-24 -1.21532e-23 -1.54568e-23 1.2575e-23 2.39897e-24 1.45896e-22 1.2409e-22 -1.3618e-23 -1.43864e-23 1.57858e-22 1.31494e-22 -1.77597e-23 -6.67024e-24 -1.6501e-21 -1.54482e-21 1.45896e-22 1.46793e-22 -1.41987e-21 -1.61073e-21 1.2409e-22 1.4545e-22 1.90903e-20 1.89293e-20 -1.62612e-21 -1.55986e-21 1.82726e-20 1.81933e-20 -1.54482e-21 -1.61073e-21 -2.41534e-19 -2.39755e-19 1.90903e-20 1.85351e-20 -2.45047e-19 -2.38593e-19 1.89293e-20 1.86809e-20 3.38689e-18 3.38205e-18 3.39246e-18 3.38341e-18 -2.39755e-19 -2.38593e-19 -2.415e-19 -2.45256e-19 -1.23158e-23 -7.42823e-24 -4.27116e-23 -3.32655e-23 -6.82461e-24 8.18316e-24 3.30794e-23 -8.61664e-24 1.13398e-22 1.32453e-22 3.39644e-22 8.71325e-23 -7.42823e-24 -1.61877e-23 -3.32655e-23 2.46246e-24 -2.56295e-23 -1.13904e-23 -7.42823e-24 -1.61877e-23 2.89832e-24 -1.07194e-24 8.18316e-24 3.02648e-24 -1.33825e-21 -1.67461e-21 -1.91349e-21 -1.37286e-21 1.32453e-22 1.46936e-22 8.71325e-23 1.61346e-22 1.69441e-22 1.32453e-22 -1.13904e-23 -1.61877e-23 1.36025e-22 1.46936e-22 -1.55682e-23 -1.30359e-23 -1.13904e-23 -1.55682e-23 -1.07194e-24 3.37116e-24 -2.43246e-23 -1.11421e-23 6.9429e-24 2.65735e-24 -1.47195e-23 -1.11421e-23 1.37556e-24 2.65735e-24 -8.76032e-24 -1.97068e-23 2.6641e-24 4.34382e-24 1.36025e-22 1.40196e-22 -1.55682e-23 -1.14236e-23 1.42764e-22 1.62488e-22 -1.11421e-23 -1.97068e-23 -1.43568e-21 -1.67461e-21 1.36025e-22 1.46936e-22 -1.71169e-21 -1.5195e-21 1.40196e-22 1.46748e-22 1.88007e-20 1.83161e-20 1.76493e-20 1.97443e-20 -1.67461e-21 -1.5195e-21 -1.37286e-21 -1.70026e-21 -8.76032e-24 -1.53551e-23 2.6641e-24 1.63383e-24 -2.7603e-23 -7.51371e-24 8.27416e-24 7.98541e-25 1.2636e-22 1.62488e-22 -8.76032e-24 -1.97068e-23 1.49786e-22 1.33298e-22 -1.53551e-23 -1.15459e-23 -1.71169e-21 -1.54028e-21 1.40196e-22 1.48296e-22 -1.43323e-21 -1.63646e-21 1.62488e-22 1.33298e-22 1.95414e-20 1.83161e-20 -1.71169e-21 -1.5195e-21 1.8377e-20 1.8882e-20 -1.54028e-21 -1.60983e-21 -2.42311e-19 -2.38171e-19 -2.38918e-19 -2.43367e-19 1.83161e-20 1.8882e-20 1.97443e-20 1.83162e-20 3.36687e-18 3.38689e-18 3.42622e-18 3.39246e-18 -2.38171e-19 -2.39755e-19 -2.43367e-19 -2.415e-19 -2.43431e-19 -2.38171e-19 1.8377e-20 1.8882e-20 -2.41534e-19 -2.39755e-19 1.90903e-20 1.85351e-20 1.8377e-20 1.90903e-20 -1.54028e-21 -1.62612e-21 1.92976e-20 1.82726e-20 -1.63646e-21 -1.54482e-21 -1.5005e-21 -1.63646e-21 1.49786e-22 1.33298e-22 -1.6501e-21 -1.54482e-21 1.45896e-22 1.46793e-22 1.49786e-22 1.45896e-22 -1.53551e-23 -1.3618e-23 1.07898e-22 1.57858e-22 -7.51371e-24 -1.77597e-23 -7.51371e-24 -1.77597e-23 7.98541e-25 4.52615e-24 -1.12305e-23 -1.21532e-23 -1.07672e-23 1.2575e-23 -1.20461e-24 -1.8122e-23 -1.21532e-23 -1.54568e-23 -2.73199e-24 6.95948e-24 1.2575e-23 2.39897e-24 1.57858e-22 1.31494e-22 -1.77597e-23 -6.67024e-24 8.66671e-23 1.81498e-22 -1.21532e-23 -1.54568e-23 -1.6501e-21 -1.41987e-21 1.45896e-22 1.2409e-22 -1.50675e-21 -1.79199e-21 1.57858e-22 1.31494e-22 1.9324e-20 1.82726e-20 -1.6501e-21 -1.54482e-21 1.9162e-20 1.81933e-20 -1.41987e-21 -1.61073e-21 -2.41534e-19 -2.45047e-19 1.90903e-20 1.89293e-20 -2.383e-19 -2.32516e-19 1.82726e-20 1.81933e-20 3.39525e-18 3.38689e-18 -2.41534e-19 -2.39755e-19 3.40616e-18 3.38205e-18 -2.45047e-19 -2.38593e-19 -5.30276e-17 -5.31906e-17 -5.3283e-17 -5.27196e-17 3.38689e-18 3.38205e-18 3.39246e-18 3.38341e-18 -2.46762e-23 -1.23158e-23 3.60656e-23 -4.27116e-23 -1.6557e-23 -6.82461e-24 1.88488e-23 3.30794e-23 1.96246e-22 1.13398e-22 9.21386e-23 3.39644e-22 -1.23158e-23 -7.42823e-24 -4.27116e-23 -3.32655e-23 -1.30304e-23 -2.56295e-23 -1.23158e-23 -7.42823e-24 3.38206e-24 2.89832e-24 -6.82461e-24 8.18316e-24 -1.77923e-21 -1.33825e-21 -2.28732e-21 -1.91349e-21 1.13398e-22 1.32453e-22 3.39644e-22 8.71325e-23 1.88741e-22 1.13398e-22 -2.56295e-23 -7.42823e-24 1.69441e-22 1.32453e-22 -1.13904e-23 -1.61877e-23 -2.56295e-23 -1.13904e-23 2.89832e-24 -1.07194e-24 1.20866e-23 -2.43246e-23 1.34035e-23 6.9429e-24 1.79173e-20 1.88007e-20 2.23512e-20 1.76493e-20 -1.33825e-21 -1.67461e-21 -1.91349e-21 -1.37286e-21 -2.01592e-21 -1.33825e-21 1.69441e-22 1.32453e-22 -1.43568e-21 -1.67461e-21 1.36025e-22 1.46936e-22 1.69441e-22 1.36025e-22 -1.13904e-23 -1.55682e-23 1.63483e-22 1.42764e-22 -2.43246e-23 -1.11421e-23 -9.51211e-24 -2.43246e-23 4.92539e-24 6.9429e-24 -1.47195e-23 -1.11421e-23 1.37556e-24 2.65735e-24 -1.47195e-23 -8.76032e-24 1.37556e-24 2.6641e-24 -3.87377e-24 -2.7603e-23 6.98429e-25 8.27416e-24 1.51958e-22 1.42764e-22 -1.47195e-23 -1.11421e-23 1.2636e-22 1.62488e-22 -8.76032e-24 -1.97068e-23 -1.43568e-21 -1.71169e-21 1.36025e-22 1.40196e-22 -1.75879e-21 -1.43323e-21 1.42764e-22 1.62488e-22 1.87814e-20 1.88007e-20 -1.43568e-21 -1.67461e-21 1.95414e-20 1.83161e-20 -1.71169e-21 -1.5195e-21 -2.3305e-19 -2.42311e-19 -2.49523e-19 -2.38918e-19 1.88007e-20 1.83161e-20 1.76493e-20 1.97443e-20 -2.7603e-23 -7.51371e-24 8.27416e-24 7.98541e-25 -5.55895e-24 -1.12305e-23 2.03263e-23 -1.07672e-23 1.2636e-22 1.49786e-22 -8.76032e-24 -1.53551e-23 1.96495e-22 1.07898e-22 -2.7603e-23 -7.51371e-24 -1.79201e-21 -1.43323e-21 1.2636e-22 1.62488e-22 -1.5005e-21 -1.63646e-21 1.49786e-22 1.33298e-22 1.95414e-20 1.8377e-20 -1.71169e-21 -1.54028e-21 1.73697e-20 1.92976e-20 -1.43323e-21 -1.63646e-21 -2.37377e-19 -2.42311e-19 1.95414e-20 1.83161e-20 -2.43431e-19 -2.38171e-19 1.8377e-20 1.8882e-20 3.40136e-18 3.36687e-18 3.38427e-18 3.42622e-18 -2.42311e-19 -2.38171e-19 -2.38918e-19 -2.43367e-19 -5.31835e-17 -5.30276e-17 -5.30206e-17 -5.3283e-17 3.36687e-18 3.38689e-18 3.42622e-18 3.39246e-18 3.43722e-18 3.36687e-18 -2.43431e-19 -2.38171e-19 3.39525e-18 3.38689e-18 -2.41534e-19 -2.39755e-19 -2.43431e-19 -2.41534e-19 1.8377e-20 1.90903e-20 -2.36504e-19 -2.383e-19 1.92976e-20 1.82726e-20 1.80476e-20 1.92976e-20 -1.5005e-21 -1.63646e-21 1.9324e-20 1.82726e-20 -1.6501e-21 -1.54482e-21 -1.5005e-21 -1.6501e-21 1.49786e-22 1.45896e-22 -1.62478e-21 -1.50675e-21 1.07898e-22 1.57858e-22 1.07898e-22 1.57858e-22 -7.51371e-24 -1.77597e-23 2.00598e-22 8.66671e-23 -1.12305e-23 -1.21532e-23 -3.148e-23 -1.20461e-24 -1.12305e-23 -1.21532e-23 5.13441e-24 -2.73199e-24 -1.07672e-23 1.2575e-23 -1.20461e-24 -1.8122e-23 -2.73199e-24 6.95948e-24 -1.81362e-23 -1.29749e-23 -8.31589e-24 3.30879e-24 1.20232e-22 1.76177e-22 8.66671e-23 1.81498e-22 -1.20461e-24 -1.8122e-23 -1.21532e-23 -1.54568e-23 -1.50675e-21 -1.79199e-21 1.57858e-22 1.31494e-22 -1.2272e-21 -1.81456e-21 8.66671e-23 1.81498e-22 1.9324e-20 1.9162e-20 -1.6501e-21 -1.41987e-21 1.6969e-20 2.02013e-20 -1.50675e-21 -1.79199e-21 -2.42411e-19 -2.383e-19 1.9324e-20 1.82726e-20 -2.55866e-19 -2.32516e-19 1.9162e-20 1.81933e-20 3.39525e-18 3.40616e-18 -2.41534e-19 -2.45047e-19 3.3795e-18 3.38528e-18 -2.383e-19 -2.32516e-19 -5.3332e-17 -5.30276e-17 3.39525e-18 3.38689e-18 -5.30132e-17 -5.31906e-17 3.40616e-18 3.38205e-18 9.23025e-16 9.22563e-16 9.23974e-16 9.24721e-16 -5.30276e-17 -5.31906e-17 -5.3283e-17 -5.27196e-17 -4.09786e-23 -2.46762e-23 -1.56068e-23 3.60656e-23 6.52845e-24 -1.6557e-23 -4.04088e-23 1.88488e-23 -1.58527e-23 -1.30304e-23 -2.46762e-23 -1.23158e-23 2.96445e-23 3.38206e-24 -1.6557e-23 -6.82461e-24 2.46054e-22 1.96246e-22 -1.81863e-22 9.21386e-23 -2.46762e-23 -1.23158e-23 3.60656e-23 -4.27116e-23 -2.04125e-21 -1.77923e-21 -8.8214e-23 -2.28732e-21 1.96246e-22 1.13398e-22 9.21386e-23 3.39644e-22 1.0118e-22 1.96246e-22 -1.30304e-23 -1.23158e-23 1.88741e-22 1.13398e-22 -2.56295e-23 -7.42823e-24 -1.30304e-23 -2.56295e-23 3.38206e-24 2.89832e-24 -4.23486e-24 1.20866e-23 -1.96104e-23 1.34035e-23 2.18248e-20 1.79173e-20 1.73443e-20 2.23512e-20 -1.77923e-21 -1.33825e-21 -2.28732e-21 -1.91349e-21 -1.33532e-21 -1.77923e-21 1.88741e-22 1.13398e-22 -2.01592e-21 -1.33825e-21 1.69441e-22 1.32453e-22 1.88741e-22 1.69441e-22 -2.56295e-23 -1.13904e-23 -6.51036e-23 1.63483e-22 1.20866e-23 -2.43246e-23 -7.81122e-24 1.20866e-23 -1.87016e-23 1.34035e-23 -9.51211e-24 -2.43246e-23 4.92539e-24 6.9429e-24 -2.52418e-19 -2.3305e-19 -2.4519e-19 -2.49523e-19 1.79173e-20 1.88007e-20 2.23512e-20 1.76493e-20 2.07348e-20 1.79173e-20 -2.01592e-21 -1.33825e-21 1.87814e-20 1.88007e-20 -1.43568e-21 -1.67461e-21 -2.01592e-21 -1.43568e-21 1.69441e-22 1.36025e-22 -1.17781e-21 -1.75879e-21 1.63483e-22 1.42764e-22 1.24572e-22 1.63483e-22 -9.51211e-24 -2.43246e-23 1.51958e-22 1.42764e-22 -1.47195e-23 -1.11421e-23 -9.51211e-24 -1.47195e-23 4.92539e-24 1.37556e-24 -3.38782e-23 -3.87377e-24 6.08228e-24 6.98429e-25 -3.87377e-24 -2.7603e-23 6.98429e-25 8.27416e-24 -9.6337e-24 -5.55895e-24 -1.82344e-23 2.03263e-23 1.51958e-22 1.2636e-22 -1.47195e-23 -8.76032e-24 1.01706e-22 1.96495e-22 -3.87377e-24 -2.7603e-23 -1.61057e-21 -1.75879e-21 1.51958e-22 1.42764e-22 -1.79201e-21 -1.43323e-21 1.2636e-22 1.62488e-22 1.87814e-20 1.95414e-20 -1.43568e-21 -1.71169e-21 1.96366e-20 1.73697e-20 -1.75879e-21 -1.43323e-21 -2.55272e-19 -2.3305e-19 1.87814e-20 1.88007e-20 -2.37377e-19 -2.42311e-19 1.95414e-20 1.83161e-20 3.36795e-18 3.40136e-18 3.43579e-18 3.38427e-18 -2.3305e-19 -2.42311e-19 -2.49523e-19 -2.38918e-19 -5.22967e-24 -3.148e-23 -5.55895e-24 -1.12305e-23 2.69163e-24 5.13441e-24 2.03263e-23 -1.07672e-23 1.96495e-22 1.07898e-22 -2.7603e-23 -7.51371e-24 2.44561e-23 2.00598e-22 -5.55895e-24 -1.12305e-23 -1.79201e-21 -1.5005e-21 1.2636e-22 1.49786e-22 -1.28036e-21 -1.62478e-21 1.96495e-22 1.07898e-22 2.03371e-20 1.73697e-20 -1.79201e-21 -1.43323e-21 1.80476e-20 1.92976e-20 -1.5005e-21 -1.63646e-21 -2.37377e-19 -2.43431e-19 1.95414e-20 1.8377e-20 -2.42574e-19 -2.36504e-19 1.73697e-20 1.92976e-20 3.37663e-18 3.40136e-18 -2.37377e-19 -2.42311e-19 3.43722e-18 3.36687e-18 -2.43431e-19 -2.38171e-19 -5.28795e-17 -5.31835e-17 -5.36918e-17 -5.30206e-17 3.40136e-18 3.36687e-18 3.38427e-18 3.42622e-18 9.23605e-16 9.23025e-16 9.23528e-16 9.23974e-16 -5.31835e-17 -5.30276e-17 -5.30206e-17 -5.3283e-17 -5.31814e-17 -5.31835e-17 3.43722e-18 3.36687e-18 -5.3332e-17 -5.30276e-17 3.39525e-18 3.38689e-18 3.43722e-18 3.39525e-18 -2.43431e-19 -2.41534e-19 3.3258e-18 3.3795e-18 -2.36504e-19 -2.383e-19 -2.4612e-19 -2.36504e-19 1.80476e-20 1.92976e-20 -2.42411e-19 -2.383e-19 1.9324e-20 1.82726e-20 1.80476e-20 1.9324e-20 -1.5005e-21 -1.6501e-21 2.02604e-20 1.6969e-20 -1.62478e-21 -1.50675e-21 -1.62478e-21 -1.50675e-21 1.07898e-22 1.57858e-22 -1.98224e-21 -1.2272e-21 2.00598e-22 8.66671e-23 2.19367e-22 1.20232e-22 2.00598e-22 8.66671e-23 -3.148e-23 -1.20461e-24 -1.12305e-23 -1.21532e-23 -3.148e-23 -1.20461e-24 5.13441e-24 -2.73199e-24 -2.50382e-23 -1.81362e-23 1.88681e-23 -8.31589e-24 -1.86369e-23 -1.12522e-23 -1.81362e-23 -1.29749e-23 -4.50701e-25 5.50458e-25 -8.31589e-24 3.30879e-24 1.20232e-22 1.76177e-22 -1.20461e-24 -1.8122e-23 2.03151e-22 1.06799e-22 -1.81362e-23 -1.29749e-23 -1.92482e-21 -1.49269e-21 -1.2272e-21 -1.81456e-21 1.20232e-22 1.76177e-22 8.66671e-23 1.81498e-22 1.6969e-20 2.02013e-20 -1.50675e-21 -1.79199e-21 1.91937e-20 1.89708e-20 -1.2272e-21 -1.81456e-21 -2.42411e-19 -2.55866e-19 1.9324e-20 1.9162e-20 -2.29179e-19 -2.37069e-19 1.6969e-20 2.02013e-20 3.39056e-18 3.3795e-18 -2.42411e-19 -2.383e-19 3.46149e-18 3.38528e-18 -2.55866e-19 -2.32516e-19 -5.3332e-17 -5.30132e-17 3.39525e-18 3.40616e-18 -5.2833e-17 -5.34663e-17 3.3795e-18 3.38528e-18 9.25254e-16 9.23025e-16 -5.3332e-17 -5.30276e-17 9.25878e-16 9.22563e-16 -5.30132e-17 -5.31906e-17 -1.62414e-14 -1.62246e-14 -1.62083e-14 -1.6253e-14 9.23025e-16 9.22563e-16 9.23974e-16 9.24721e-16 -2.47229e-23 -4.09786e-23 5.84463e-23 -1.56068e-23 6.25567e-23 6.52845e-24 9.7128e-25 -4.04088e-23 2.53902e-22 2.46054e-22 2.33179e-22 -1.81863e-22 -4.09786e-23 -2.46762e-23 -1.56068e-23 3.60656e-23 2.97706e-23 -1.58527e-23 -4.09786e-23 -2.46762e-23 1.08379e-23 2.96445e-23 6.52845e-24 -1.6557e-23 -1.58527e-23 -1.30304e-23 2.96445e-23 3.38206e-24 -2.68691e-23 -4.23486e-24 -2.0288e-23 -1.96104e-23 5.38595e-24 2.46054e-22 -1.58527e-23 -2.46762e-23 1.0118e-22 1.96246e-22 -1.30304e-23 -1.23158e-23 -1.9612e-21 -2.04125e-21 -4.6191e-22 -8.8214e-23 2.46054e-22 1.96246e-22 -1.81863e-22 9.21386e-23 1.94696e-20 2.18248e-20 7.7804e-21 1.73443e-20 -2.04125e-21 -1.77923e-21 -8.8214e-23 -2.28732e-21 -1.25285e-21 -2.04125e-21 1.0118e-22 1.96246e-22 -1.33532e-21 -1.77923e-21 1.88741e-22 1.13398e-22 1.0118e-22 1.88741e-22 -1.30304e-23 -2.56295e-23 3.27367e-22 -6.51036e-23 -4.23486e-24 1.20866e-23 -1.06471e-22 -4.23486e-24 1.24552e-23 -1.96104e-23 -7.81122e-24 1.20866e-23 -1.87016e-23 1.34035e-23 -2.48063e-19 -2.52418e-19 -2.09463e-19 -2.4519e-19 2.18248e-20 1.79173e-20 1.73443e-20 2.23512e-20 1.45464e-20 2.18248e-20 -1.33532e-21 -1.77923e-21 2.07348e-20 1.79173e-20 -2.01592e-21 -1.33825e-21 -1.33532e-21 -2.01592e-21 1.88741e-22 1.69441e-22 -1.11614e-21 -1.17781e-21 -6.51036e-23 1.63483e-22 2.7975e-22 -6.51036e-23 -7.81122e-24 1.20866e-23 1.24572e-22 1.63483e-22 -9.51211e-24 -2.43246e-23 -7.81122e-24 -9.51211e-24 -1.87016e-23 4.92539e-24 -2.58323e-23 -3.38782e-23 -1.65517e-24 6.08228e-24 3.48113e-18 3.36795e-18 3.37266e-18 3.43579e-18 -2.52418e-19 -2.3305e-19 -2.4519e-19 -2.49523e-19 -2.27851e-19 -2.52418e-19 2.07348e-20 1.79173e-20 -2.55272e-19 -2.3305e-19 1.87814e-20 1.88007e-20 2.07348e-20 1.87814e-20 -2.01592e-21 -1.43568e-21 1.4609e-20 1.96366e-20 -1.17781e-21 -1.75879e-21 -1.58021e-21 -1.17781e-21 1.24572e-22 1.63483e-22 -1.61057e-21 -1.75879e-21 1.51958e-22 1.42764e-22 1.24572e-22 1.51958e-22 -9.51211e-24 -1.47195e-23 2.06485e-22 1.01706e-22 -3.38782e-23 -3.87377e-24 -3.38782e-23 -3.87377e-24 6.08228e-24 6.98429e-25 -4.22452e-23 -9.6337e-24 1.0707e-23 -1.82344e-23 -6.73811e-23 -5.22967e-24 -9.6337e-24 -5.55895e-24 -2.17957e-23 2.69163e-24 -1.82344e-23 2.03263e-23 1.01706e-22 1.96495e-22 -3.87377e-24 -2.7603e-23 2.75686e-22 2.44561e-23 -9.6337e-24 -5.55895e-24 -1.61057e-21 -1.79201e-21 1.51958e-22 1.2636e-22 -1.66025e-21 -1.28036e-21 1.01706e-22 1.96495e-22 1.92945e-20 1.96366e-20 -1.61057e-21 -1.75879e-21 2.03371e-20 1.73697e-20 -1.79201e-21 -1.43323e-21 -2.55272e-19 -2.37377e-19 1.87814e-20 1.95414e-20 -2.35143e-19 -2.42574e-19 1.96366e-20 1.73697e-20 3.47096e-18 3.36795e-18 -2.55272e-19 -2.3305e-19 3.37663e-18 3.40136e-18 -2.37377e-19 -2.42311e-19 -5.36394e-17 -5.28795e-17 -5.26907e-17 -5.36918e-17 3.36795e-18 3.40136e-18 3.43579e-18 3.38427e-18 -5.22967e-24 -3.148e-23 2.69163e-24 5.13441e-24 -2.82136e-23 -2.50382e-23 -4.52589e-24 1.88681e-23 2.11628e-22 2.19367e-22 2.44561e-23 2.00598e-22 -5.22967e-24 -3.148e-23 -5.55895e-24 -1.12305e-23 -1.28036e-21 -1.62478e-21 1.96495e-22 1.07898e-22 -1.51775e-21 -1.98224e-21 2.44561e-23 2.00598e-22 2.03371e-20 1.80476e-20 -1.79201e-21 -1.5005e-21 1.5779e-20 2.02604e-20 -1.28036e-21 -1.62478e-21 -2.37594e-19 -2.42574e-19 2.03371e-20 1.73697e-20 -2.4612e-19 -2.36504e-19 1.80476e-20 1.92976e-20 3.37663e-18 3.43722e-18 -2.37377e-19 -2.43431e-19 3.41316e-18 3.3258e-18 -2.42574e-19 -2.36504e-19 -5.37844e-17 -5.28795e-17 3.37663e-18 3.40136e-18 -5.31814e-17 -5.31835e-17 3.43722e-18 3.36687e-18 9.24232e-16 9.23605e-16 9.21989e-16 9.23528e-16 -5.28795e-17 -5.31835e-17 -5.36918e-17 -5.30206e-17 -1.62284e-14 -1.62414e-